V -t * -v 1.0a5 -a 0
A -t * -n 1 -p 0 -o 0x7fffffff -c 30 -a 1
A -t * -h 1 -m 1073741823 -s 0
n -t * -a 0 -s 0 -S UP -v circle -c black -i black
n -t * -a 1 -s 1 -S UP -v circle -c black -i black
n -t * -a 2 -s 2 -S UP -v circle -c black -i black
n -t * -a 3 -s 3 -S UP -v circle -c black -i black
l -t * -s 0 -d 1 -S UP -r 2000000 -D 0.01 -c black
l -t * -s 2 -d 3 -S UP -r 2000000 -D 0.01 -c black
l -t * -s 1 -d 2 -S UP -r 1000000 -D 0.01 -c black
+ -t 0.5 -s 0 -d 1 -p tcp -e 1000 -c 0 -i 0 -a 0 -x {0.0 3.0 0 ------- null}
- -t 0.5 -s 0 -d 1 -p tcp -e 1000 -c 0 -i 0 -a 0 -x {0.0 3.0 0 ------- null}
h -t 0.5 -s 0 -d 1 -p tcp -e 1000 -c 0 -i 0 -a 0 -x {0.0 3.0 -1 ------- null}
r -t 0.514 -s 0 -d 1 -p tcp -e 1000 -c 0 -i 0 -a 0 -x {0.0 3.0 0 ------- null}
+ -t 0.514 -s 1 -d 2 -p tcp -e 1000 -c 0 -i 0 -a 0 -x {0.0 3.0 0 ------- null}
- -t 0.514 -s 1 -d 2 -p tcp -e 1000 -c 0 -i 0 -a 0 -x {0.0 3.0 0 ------- null}
h -t 0.514 -s 1 -d 2 -p tcp -e 1000 -c 0 -i 0 -a 0 -x {0.0 3.0 -1 ------- null}
r -t 0.532 -s 1 -d 2 -p tcp -e 1000 -c 0 -i 0 -a 0 -x {0.0 3.0 0 ------- null}
+ -t 0.532 -s 2 -d 3 -p tcp -e 1000 -c 0 -i 0 -a 0 -x {0.0 3.0 0 ------- null}
- -t 0.532 -s 2 -d 3 -p tcp -e 1000 -c 0 -i 0 -a 0 -x {0.0 3.0 0 ------- null}
h -t 0.532 -s 2 -d 3 -p tcp -e 1000 -c 0 -i 0 -a 0 -x {0.0 3.0 -1 ------- null}
r -t 0.546 -s 2 -d 3 -p tcp -e 1000 -c 0 -i 0 -a 0 -x {0.0 3.0 0 ------- null}
+ -t 0.546 -s 3 -d 2 -p ack -e 40 -c 0 -i 1 -a 0 -x {3.0 0.0 0 ------- null}
- -t 0.546 -s 3 -d 2 -p ack -e 40 -c 0 -i 1 -a 0 -x {3.0 0.0 0 ------- null}
h -t 0.546 -s 3 -d 2 -p ack -e 40 -c 0 -i 1 -a 0 -x {3.0 0.0 -1 ------- null}
r -t 0.55616 -s 3 -d 2 -p ack -e 40 -c 0 -i 1 -a 0 -x {3.0 0.0 0 ------- null}
+ -t 0.55616 -s 2 -d 1 -p ack -e 40 -c 0 -i 1 -a 0 -x {3.0 0.0 0 ------- null}
- -t 0.55616 -s 2 -d 1 -p ack -e 40 -c 0 -i 1 -a 0 -x {3.0 0.0 0 ------- null}
h -t 0.55616 -s 2 -d 1 -p ack -e 40 -c 0 -i 1 -a 0 -x {3.0 0.0 -1 ------- null}
r -t 0.56648 -s 2 -d 1 -p ack -e 40 -c 0 -i 1 -a 0 -x {3.0 0.0 0 ------- null}
+ -t 0.56648 -s 1 -d 0 -p ack -e 40 -c 0 -i 1 -a 0 -x {3.0 0.0 0 ------- null}
- -t 0.56648 -s 1 -d 0 -p ack -e 40 -c 0 -i 1 -a 0 -x {3.0 0.0 0 ------- null}
h -t 0.56648 -s 1 -d 0 -p ack -e 40 -c 0 -i 1 -a 0 -x {3.0 0.0 -1 ------- null}
r -t 0.57664 -s 1 -d 0 -p ack -e 40 -c 0 -i 1 -a 0 -x {3.0 0.0 0 ------- null}
+ -t 0.57664 -s 0 -d 1 -p tcp -e 1000 -c 0 -i 2 -a 0 -x {0.0 3.0 1 ------- null}
- -t 0.57664 -s 0 -d 1 -p tcp -e 1000 -c 0 -i 2 -a 0 -x {0.0 3.0 1 ------- null}
h -t 0.57664 -s 0 -d 1 -p tcp -e 1000 -c 0 -i 2 -a 0 -x {0.0 3.0 -1 ------- null}
r -t 0.59064 -s 0 -d 1 -p tcp -e 1000 -c 0 -i 2 -a 0 -x {0.0 3.0 1 ------- null}
+ -t 0.59064 -s 1 -d 2 -p tcp -e 1000 -c 0 -i 2 -a 0 -x {0.0 3.0 1 ------- null}
- -t 0.59064 -s 1 -d 2 -p tcp -e 1000 -c 0 -i 2 -a 0 -x {0.0 3.0 1 ------- null}
h -t 0.59064 -s 1 -d 2 -p tcp -e 1000 -c 0 -i 2 -a 0 -x {0.0 3.0 -1 ------- null}
r -t 0.60864 -s 1 -d 2 -p tcp -e 1000 -c 0 -i 2 -a 0 -x {0.0 3.0 1 ------- null}
+ -t 0.60864 -s 2 -d 3 -p tcp -e 1000 -c 0 -i 2 -a 0 -x {0.0 3.0 1 ------- null}
- -t 0.60864 -s 2 -d 3 -p tcp -e 1000 -c 0 -i 2 -a 0 -x {0.0 3.0 1 ------- null}
h -t 0.60864 -s 2 -d 3 -p tcp -e 1000 -c 0 -i 2 -a 0 -x {0.0 3.0 -1 ------- null}
r -t 0.62264 -s 2 -d 3 -p tcp -e 1000 -c 0 -i 2 -a 0 -x {0.0 3.0 1 ------- null}
+ -t 0.62264 -s 3 -d 2 -p ack -e 40 -c 0 -i 3 -a 0 -x {3.0 0.0 1 ------- null}
- -t 0.62264 -s 3 -d 2 -p ack -e 40 -c 0 -i 3 -a 0 -x {3.0 0.0 1 ------- null}
h -t 0.62264 -s 3 -d 2 -p ack -e 40 -c 0 -i 3 -a 0 -x {3.0 0.0 -1 ------- null}
r -t 0.6328 -s 3 -d 2 -p ack -e 40 -c 0 -i 3 -a 0 -x {3.0 0.0 1 ------- null}
+ -t 0.6328 -s 2 -d 1 -p ack -e 40 -c 0 -i 3 -a 0 -x {3.0 0.0 1 ------- null}
- -t 0.6328 -s 2 -d 1 -p ack -e 40 -c 0 -i 3 -a 0 -x {3.0 0.0 1 ------- null}
h -t 0.6328 -s 2 -d 1 -p ack -e 40 -c 0 -i 3 -a 0 -x {3.0 0.0 -1 ------- null}
r -t 0.64312 -s 2 -d 1 -p ack -e 40 -c 0 -i 3 -a 0 -x {3.0 0.0 1 ------- null}
+ -t 0.64312 -s 1 -d 0 -p ack -e 40 -c 0 -i 3 -a 0 -x {3.0 0.0 1 ------- null}
- -t 0.64312 -s 1 -d 0 -p ack -e 40 -c 0 -i 3 -a 0 -x {3.0 0.0 1 ------- null}
h -t 0.64312 -s 1 -d 0 -p ack -e 40 -c 0 -i 3 -a 0 -x {3.0 0.0 -1 ------- null}
r -t 0.65328 -s 1 -d 0 -p ack -e 40 -c 0 -i 3 -a 0 -x {3.0 0.0 1 ------- null}
+ -t 0.65328 -s 0 -d 1 -p tcp -e 1000 -c 0 -i 4 -a 0 -x {0.0 3.0 2 ------- null}
- -t 0.65328 -s 0 -d 1 -p tcp -e 1000 -c 0 -i 4 -a 0 -x {0.0 3.0 2 ------- null}
h -t 0.65328 -s 0 -d 1 -p tcp -e 1000 -c 0 -i 4 -a 0 -x {0.0 3.0 -1 ------- null}
+ -t 0.65328 -s 0 -d 1 -p tcp -e 1000 -c 0 -i 5 -a 0 -x {0.0 3.0 3 ------- null}
+ -t 0.65328 -s 0 -d 1 -p tcp -e 1000 -c 0 -i 6 -a 0 -x {0.0 3.0 4 ------- null}
- -t 0.65728 -s 0 -d 1 -p tcp -e 1000 -c 0 -i 5 -a 0 -x {0.0 3.0 3 ------- null}
h -t 0.65728 -s 0 -d 1 -p tcp -e 1000 -c 0 -i 5 -a 0 -x {0.0 3.0 -1 ------- null}
- -t 0.66128 -s 0 -d 1 -p tcp -e 1000 -c 0 -i 6 -a 0 -x {0.0 3.0 4 ------- null}
h -t 0.66128 -s 0 -d 1 -p tcp -e 1000 -c 0 -i 6 -a 0 -x {0.0 3.0 -1 ------- null}
r -t 0.66728 -s 0 -d 1 -p tcp -e 1000 -c 0 -i 4 -a 0 -x {0.0 3.0 2 ------- null}
+ -t 0.66728 -s 1 -d 2 -p tcp -e 1000 -c 0 -i 4 -a 0 -x {0.0 3.0 2 ------- null}
- -t 0.66728 -s 1 -d 2 -p tcp -e 1000 -c 0 -i 4 -a 0 -x {0.0 3.0 2 ------- null}
h -t 0.66728 -s 1 -d 2 -p tcp -e 1000 -c 0 -i 4 -a 0 -x {0.0 3.0 -1 ------- null}
r -t 0.67128 -s 0 -d 1 -p tcp -e 1000 -c 0 -i 5 -a 0 -x {0.0 3.0 3 ------- null}
+ -t 0.67128 -s 1 -d 2 -p tcp -e 1000 -c 0 -i 5 -a 0 -x {0.0 3.0 3 ------- null}
r -t 0.67528 -s 0 -d 1 -p tcp -e 1000 -c 0 -i 6 -a 0 -x {0.0 3.0 4 ------- null}
+ -t 0.67528 -s 1 -d 2 -p tcp -e 1000 -c 0 -i 6 -a 0 -x {0.0 3.0 4 ------- null}
- -t 0.67528 -s 1 -d 2 -p tcp -e 1000 -c 0 -i 5 -a 0 -x {0.0 3.0 3 ------- null}
h -t 0.67528 -s 1 -d 2 -p tcp -e 1000 -c 0 -i 5 -a 0 -x {0.0 3.0 -1 ------- null}
- -t 0.68328 -s 1 -d 2 -p tcp -e 1000 -c 0 -i 6 -a 0 -x {0.0 3.0 4 ------- null}
h -t 0.68328 -s 1 -d 2 -p tcp -e 1000 -c 0 -i 6 -a 0 -x {0.0 3.0 -1 ------- null}
r -t 0.68528 -s 1 -d 2 -p tcp -e 1000 -c 0 -i 4 -a 0 -x {0.0 3.0 2 ------- null}
+ -t 0.68528 -s 2 -d 3 -p tcp -e 1000 -c 0 -i 4 -a 0 -x {0.0 3.0 2 ------- null}
- -t 0.68528 -s 2 -d 3 -p tcp -e 1000 -c 0 -i 4 -a 0 -x {0.0 3.0 2 ------- null}
h -t 0.68528 -s 2 -d 3 -p tcp -e 1000 -c 0 -i 4 -a 0 -x {0.0 3.0 -1 ------- null}
r -t 0.69328 -s 1 -d 2 -p tcp -e 1000 -c 0 -i 5 -a 0 -x {0.0 3.0 3 ------- null}
+ -t 0.69328 -s 2 -d 3 -p tcp -e 1000 -c 0 -i 5 -a 0 -x {0.0 3.0 3 ------- null}
- -t 0.69328 -s 2 -d 3 -p tcp -e 1000 -c 0 -i 5 -a 0 -x {0.0 3.0 3 ------- null}
h -t 0.69328 -s 2 -d 3 -p tcp -e 1000 -c 0 -i 5 -a 0 -x {0.0 3.0 -1 ------- null}
r -t 0.69928 -s 2 -d 3 -p tcp -e 1000 -c 0 -i 4 -a 0 -x {0.0 3.0 2 ------- null}
+ -t 0.69928 -s 3 -d 2 -p ack -e 40 -c 0 -i 7 -a 0 -x {3.0 0.0 2 ------- null}
- -t 0.69928 -s 3 -d 2 -p ack -e 40 -c 0 -i 7 -a 0 -x {3.0 0.0 2 ------- null}
h -t 0.69928 -s 3 -d 2 -p ack -e 40 -c 0 -i 7 -a 0 -x {3.0 0.0 -1 ------- null}
r -t 0.70128 -s 1 -d 2 -p tcp -e 1000 -c 0 -i 6 -a 0 -x {0.0 3.0 4 ------- null}
+ -t 0.70128 -s 2 -d 3 -p tcp -e 1000 -c 0 -i 6 -a 0 -x {0.0 3.0 4 ------- null}
- -t 0.70128 -s 2 -d 3 -p tcp -e 1000 -c 0 -i 6 -a 0 -x {0.0 3.0 4 ------- null}
h -t 0.70128 -s 2 -d 3 -p tcp -e 1000 -c 0 -i 6 -a 0 -x {0.0 3.0 -1 ------- null}
r -t 0.70728 -s 2 -d 3 -p tcp -e 1000 -c 0 -i 5 -a 0 -x {0.0 3.0 3 ------- null}
+ -t 0.70728 -s 3 -d 2 -p ack -e 40 -c 0 -i 8 -a 0 -x {3.0 0.0 3 ------- null}
- -t 0.70728 -s 3 -d 2 -p ack -e 40 -c 0 -i 8 -a 0 -x {3.0 0.0 3 ------- null}
h -t 0.70728 -s 3 -d 2 -p ack -e 40 -c 0 -i 8 -a 0 -x {3.0 0.0 -1 ------- null}
r -t 0.70944 -s 3 -d 2 -p ack -e 40 -c 0 -i 7 -a 0 -x {3.0 0.0 2 ------- null}
+ -t 0.70944 -s 2 -d 1 -p ack -e 40 -c 0 -i 7 -a 0 -x {3.0 0.0 2 ------- null}
- -t 0.70944 -s 2 -d 1 -p ack -e 40 -c 0 -i 7 -a 0 -x {3.0 0.0 2 ------- null}
h -t 0.70944 -s 2 -d 1 -p ack -e 40 -c 0 -i 7 -a 0 -x {3.0 0.0 -1 ------- null}
r -t 0.71528 -s 2 -d 3 -p tcp -e 1000 -c 0 -i 6 -a 0 -x {0.0 3.0 4 ------- null}
+ -t 0.71528 -s 3 -d 2 -p ack -e 40 -c 0 -i 9 -a 0 -x {3.0 0.0 4 ------- null}
- -t 0.71528 -s 3 -d 2 -p ack -e 40 -c 0 -i 9 -a 0 -x {3.0 0.0 4 ------- null}
h -t 0.71528 -s 3 -d 2 -p ack -e 40 -c 0 -i 9 -a 0 -x {3.0 0.0 -1 ------- null}
r -t 0.71744 -s 3 -d 2 -p ack -e 40 -c 0 -i 8 -a 0 -x {3.0 0.0 3 ------- null}
+ -t 0.71744 -s 2 -d 1 -p ack -e 40 -c 0 -i 8 -a 0 -x {3.0 0.0 3 ------- null}
- -t 0.71744 -s 2 -d 1 -p ack -e 40 -c 0 -i 8 -a 0 -x {3.0 0.0 3 ------- null}
h -t 0.71744 -s 2 -d 1 -p ack -e 40 -c 0 -i 8 -a 0 -x {3.0 0.0 -1 ------- null}
r -t 0.71976 -s 2 -d 1 -p ack -e 40 -c 0 -i 7 -a 0 -x {3.0 0.0 2 ------- null}
+ -t 0.71976 -s 1 -d 0 -p ack -e 40 -c 0 -i 7 -a 0 -x {3.0 0.0 2 ------- null}
- -t 0.71976 -s 1 -d 0 -p ack -e 40 -c 0 -i 7 -a 0 -x {3.0 0.0 2 ------- null}
h -t 0.71976 -s 1 -d 0 -p ack -e 40 -c 0 -i 7 -a 0 -x {3.0 0.0 -1 ------- null}
r -t 0.72544 -s 3 -d 2 -p ack -e 40 -c 0 -i 9 -a 0 -x {3.0 0.0 4 ------- null}
+ -t 0.72544 -s 2 -d 1 -p ack -e 40 -c 0 -i 9 -a 0 -x {3.0 0.0 4 ------- null}
- -t 0.72544 -s 2 -d 1 -p ack -e 40 -c 0 -i 9 -a 0 -x {3.0 0.0 4 ------- null}
h -t 0.72544 -s 2 -d 1 -p ack -e 40 -c 0 -i 9 -a 0 -x {3.0 0.0 -1 ------- null}
r -t 0.72776 -s 2 -d 1 -p ack -e 40 -c 0 -i 8 -a 0 -x {3.0 0.0 3 ------- null}
+ -t 0.72776 -s 1 -d 0 -p ack -e 40 -c 0 -i 8 -a 0 -x {3.0 0.0 3 ------- null}
- -t 0.72776 -s 1 -d 0 -p ack -e 40 -c 0 -i 8 -a 0 -x {3.0 0.0 3 ------- null}
h -t 0.72776 -s 1 -d 0 -p ack -e 40 -c 0 -i 8 -a 0 -x {3.0 0.0 -1 ------- null}
r -t 0.72992 -s 1 -d 0 -p ack -e 40 -c 0 -i 7 -a 0 -x {3.0 0.0 2 ------- null}
+ -t 0.72992 -s 0 -d 1 -p tcp -e 1000 -c 0 -i 10 -a 0 -x {0.0 3.0 5 ------- null}
- -t 0.72992 -s 0 -d 1 -p tcp -e 1000 -c 0 -i 10 -a 0 -x {0.0 3.0 5 ------- null}
h -t 0.72992 -s 0 -d 1 -p tcp -e 1000 -c 0 -i 10 -a 0 -x {0.0 3.0 -1 ------- null}
r -t 0.73576 -s 2 -d 1 -p ack -e 40 -c 0 -i 9 -a 0 -x {3.0 0.0 4 ------- null}
+ -t 0.73576 -s 1 -d 0 -p ack -e 40 -c 0 -i 9 -a 0 -x {3.0 0.0 4 ------- null}
- -t 0.73576 -s 1 -d 0 -p ack -e 40 -c 0 -i 9 -a 0 -x {3.0 0.0 4 ------- null}
h -t 0.73576 -s 1 -d 0 -p ack -e 40 -c 0 -i 9 -a 0 -x {3.0 0.0 -1 ------- null}
r -t 0.73792 -s 1 -d 0 -p ack -e 40 -c 0 -i 8 -a 0 -x {3.0 0.0 3 ------- null}
+ -t 0.73792 -s 0 -d 1 -p tcp -e 1000 -c 0 -i 11 -a 0 -x {0.0 3.0 6 ------- null}
- -t 0.73792 -s 0 -d 1 -p tcp -e 1000 -c 0 -i 11 -a 0 -x {0.0 3.0 6 ------- null}
h -t 0.73792 -s 0 -d 1 -p tcp -e 1000 -c 0 -i 11 -a 0 -x {0.0 3.0 -1 ------- null}
r -t 0.74392 -s 0 -d 1 -p tcp -e 1000 -c 0 -i 10 -a 0 -x {0.0 3.0 5 ------- null}
+ -t 0.74392 -s 1 -d 2 -p tcp -e 1000 -c 0 -i 10 -a 0 -x {0.0 3.0 5 ------- null}
- -t 0.74392 -s 1 -d 2 -p tcp -e 1000 -c 0 -i 10 -a 0 -x {0.0 3.0 5 ------- null}
h -t 0.74392 -s 1 -d 2 -p tcp -e 1000 -c 0 -i 10 -a 0 -x {0.0 3.0 -1 ------- null}
r -t 0.74592 -s 1 -d 0 -p ack -e 40 -c 0 -i 9 -a 0 -x {3.0 0.0 4 ------- null}
+ -t 0.74592 -s 0 -d 1 -p tcp -e 1000 -c 0 -i 12 -a 0 -x {0.0 3.0 7 ------- null}
- -t 0.74592 -s 0 -d 1 -p tcp -e 1000 -c 0 -i 12 -a 0 -x {0.0 3.0 7 ------- null}
h -t 0.74592 -s 0 -d 1 -p tcp -e 1000 -c 0 -i 12 -a 0 -x {0.0 3.0 -1 ------- null}
r -t 0.75192 -s 0 -d 1 -p tcp -e 1000 -c 0 -i 11 -a 0 -x {0.0 3.0 6 ------- null}
+ -t 0.75192 -s 1 -d 2 -p tcp -e 1000 -c 0 -i 11 -a 0 -x {0.0 3.0 6 ------- null}
- -t 0.75192 -s 1 -d 2 -p tcp -e 1000 -c 0 -i 11 -a 0 -x {0.0 3.0 6 ------- null}
h -t 0.75192 -s 1 -d 2 -p tcp -e 1000 -c 0 -i 11 -a 0 -x {0.0 3.0 -1 ------- null}
r -t 0.75992 -s 0 -d 1 -p tcp -e 1000 -c 0 -i 12 -a 0 -x {0.0 3.0 7 ------- null}
+ -t 0.75992 -s 1 -d 2 -p tcp -e 1000 -c 0 -i 12 -a 0 -x {0.0 3.0 7 ------- null}
- -t 0.75992 -s 1 -d 2 -p tcp -e 1000 -c 0 -i 12 -a 0 -x {0.0 3.0 7 ------- null}
h -t 0.75992 -s 1 -d 2 -p tcp -e 1000 -c 0 -i 12 -a 0 -x {0.0 3.0 -1 ------- null}
r -t 0.76192 -s 1 -d 2 -p tcp -e 1000 -c 0 -i 10 -a 0 -x {0.0 3.0 5 ------- null}
+ -t 0.76192 -s 2 -d 3 -p tcp -e 1000 -c 0 -i 10 -a 0 -x {0.0 3.0 5 ------- null}
- -t 0.76192 -s 2 -d 3 -p tcp -e 1000 -c 0 -i 10 -a 0 -x {0.0 3.0 5 ------- null}
h -t 0.76192 -s 2 -d 3 -p tcp -e 1000 -c 0 -i 10 -a 0 -x {0.0 3.0 -1 ------- null}
r -t 0.76992 -s 1 -d 2 -p tcp -e 1000 -c 0 -i 11 -a 0 -x {0.0 3.0 6 ------- null}
+ -t 0.76992 -s 2 -d 3 -p tcp -e 1000 -c 0 -i 11 -a 0 -x {0.0 3.0 6 ------- null}
- -t 0.76992 -s 2 -d 3 -p tcp -e 1000 -c 0 -i 11 -a 0 -x {0.0 3.0 6 ------- null}
h -t 0.76992 -s 2 -d 3 -p tcp -e 1000 -c 0 -i 11 -a 0 -x {0.0 3.0 -1 ------- null}
r -t 0.77592 -s 2 -d 3 -p tcp -e 1000 -c 0 -i 10 -a 0 -x {0.0 3.0 5 ------- null}
+ -t 0.77592 -s 3 -d 2 -p ack -e 40 -c 0 -i 13 -a 0 -x {3.0 0.0 5 ------- null}
- -t 0.77592 -s 3 -d 2 -p ack -e 40 -c 0 -i 13 -a 0 -x {3.0 0.0 5 ------- null}
h -t 0.77592 -s 3 -d 2 -p ack -e 40 -c 0 -i 13 -a 0 -x {3.0 0.0 -1 ------- null}
r -t 0.77792 -s 1 -d 2 -p tcp -e 1000 -c 0 -i 12 -a 0 -x {0.0 3.0 7 ------- null}
+ -t 0.77792 -s 2 -d 3 -p tcp -e 1000 -c 0 -i 12 -a 0 -x {0.0 3.0 7 ------- null}
- -t 0.77792 -s 2 -d 3 -p tcp -e 1000 -c 0 -i 12 -a 0 -x {0.0 3.0 7 ------- null}
h -t 0.77792 -s 2 -d 3 -p tcp -e 1000 -c 0 -i 12 -a 0 -x {0.0 3.0 -1 ------- null}
r -t 0.78392 -s 2 -d 3 -p tcp -e 1000 -c 0 -i 11 -a 0 -x {0.0 3.0 6 ------- null}
+ -t 0.78392 -s 3 -d 2 -p ack -e 40 -c 0 -i 14 -a 0 -x {3.0 0.0 6 ------- null}
- -t 0.78392 -s 3 -d 2 -p ack -e 40 -c 0 -i 14 -a 0 -x {3.0 0.0 6 ------- null}
h -t 0.78392 -s 3 -d 2 -p ack -e 40 -c 0 -i 14 -a 0 -x {3.0 0.0 -1 ------- null}
r -t 0.78608 -s 3 -d 2 -p ack -e 40 -c 0 -i 13 -a 0 -x {3.0 0.0 5 ------- null}
+ -t 0.78608 -s 2 -d 1 -p ack -e 40 -c 0 -i 13 -a 0 -x {3.0 0.0 5 ------- null}
- -t 0.78608 -s 2 -d 1 -p ack -e 40 -c 0 -i 13 -a 0 -x {3.0 0.0 5 ------- null}
h -t 0.78608 -s 2 -d 1 -p ack -e 40 -c 0 -i 13 -a 0 -x {3.0 0.0 -1 ------- null}
r -t 0.79192 -s 2 -d 3 -p tcp -e 1000 -c 0 -i 12 -a 0 -x {0.0 3.0 7 ------- null}
+ -t 0.79192 -s 3 -d 2 -p ack -e 40 -c 0 -i 15 -a 0 -x {3.0 0.0 7 ------- null}
- -t 0.79192 -s 3 -d 2 -p ack -e 40 -c 0 -i 15 -a 0 -x {3.0 0.0 7 ------- null}
h -t 0.79192 -s 3 -d 2 -p ack -e 40 -c 0 -i 15 -a 0 -x {3.0 0.0 -1 ------- null}
r -t 0.79408 -s 3 -d 2 -p ack -e 40 -c 0 -i 14 -a 0 -x {3.0 0.0 6 ------- null}
+ -t 0.79408 -s 2 -d 1 -p ack -e 40 -c 0 -i 14 -a 0 -x {3.0 0.0 6 ------- null}
- -t 0.79408 -s 2 -d 1 -p ack -e 40 -c 0 -i 14 -a 0 -x {3.0 0.0 6 ------- null}
h -t 0.79408 -s 2 -d 1 -p ack -e 40 -c 0 -i 14 -a 0 -x {3.0 0.0 -1 ------- null}
r -t 0.7964 -s 2 -d 1 -p ack -e 40 -c 0 -i 13 -a 0 -x {3.0 0.0 5 ------- null}
+ -t 0.7964 -s 1 -d 0 -p ack -e 40 -c 0 -i 13 -a 0 -x {3.0 0.0 5 ------- null}
- -t 0.7964 -s 1 -d 0 -p ack -e 40 -c 0 -i 13 -a 0 -x {3.0 0.0 5 ------- null}
h -t 0.7964 -s 1 -d 0 -p ack -e 40 -c 0 -i 13 -a 0 -x {3.0 0.0 -1 ------- null}
r -t 0.80208 -s 3 -d 2 -p ack -e 40 -c 0 -i 15 -a 0 -x {3.0 0.0 7 ------- null}
+ -t 0.80208 -s 2 -d 1 -p ack -e 40 -c 0 -i 15 -a 0 -x {3.0 0.0 7 ------- null}
- -t 0.80208 -s 2 -d 1 -p ack -e 40 -c 0 -i 15 -a 0 -x {3.0 0.0 7 ------- null}
h -t 0.80208 -s 2 -d 1 -p ack -e 40 -c 0 -i 15 -a 0 -x {3.0 0.0 -1 ------- null}
r -t 0.8044 -s 2 -d 1 -p ack -e 40 -c 0 -i 14 -a 0 -x {3.0 0.0 6 ------- null}
+ -t 0.8044 -s 1 -d 0 -p ack -e 40 -c 0 -i 14 -a 0 -x {3.0 0.0 6 ------- null}
- -t 0.8044 -s 1 -d 0 -p ack -e 40 -c 0 -i 14 -a 0 -x {3.0 0.0 6 ------- null}
h -t 0.8044 -s 1 -d 0 -p ack -e 40 -c 0 -i 14 -a 0 -x {3.0 0.0 -1 ------- null}
r -t 0.80656 -s 1 -d 0 -p ack -e 40 -c 0 -i 13 -a 0 -x {3.0 0.0 5 ------- null}
+ -t 0.80656 -s 0 -d 1 -p tcp -e 1000 -c 0 -i 16 -a 0 -x {0.0 3.0 8 ------- null}
- -t 0.80656 -s 0 -d 1 -p tcp -e 1000 -c 0 -i 16 -a 0 -x {0.0 3.0 8 ------- null}
h -t 0.80656 -s 0 -d 1 -p tcp -e 1000 -c 0 -i 16 -a 0 -x {0.0 3.0 -1 ------- null}
+ -t 0.80656 -s 0 -d 1 -p tcp -e 1000 -c 0 -i 17 -a 0 -x {0.0 3.0 9 ------- null}
- -t 0.81056 -s 0 -d 1 -p tcp -e 1000 -c 0 -i 17 -a 0 -x {0.0 3.0 9 ------- null}
h -t 0.81056 -s 0 -d 1 -p tcp -e 1000 -c 0 -i 17 -a 0 -x {0.0 3.0 -1 ------- null}
r -t 0.8124 -s 2 -d 1 -p ack -e 40 -c 0 -i 15 -a 0 -x {3.0 0.0 7 ------- null}
+ -t 0.8124 -s 1 -d 0 -p ack -e 40 -c 0 -i 15 -a 0 -x {3.0 0.0 7 ------- null}
- -t 0.8124 -s 1 -d 0 -p ack -e 40 -c 0 -i 15 -a 0 -x {3.0 0.0 7 ------- null}
h -t 0.8124 -s 1 -d 0 -p ack -e 40 -c 0 -i 15 -a 0 -x {3.0 0.0 -1 ------- null}
r -t 0.81456 -s 1 -d 0 -p ack -e 40 -c 0 -i 14 -a 0 -x {3.0 0.0 6 ------- null}
+ -t 0.81456 -s 0 -d 1 -p tcp -e 1000 -c 0 -i 18 -a 0 -x {0.0 3.0 10 ------- null}
+ -t 0.81456 -s 0 -d 1 -p tcp -e 1000 -c 0 -i 19 -a 0 -x {0.0 3.0 11 ------- null}
- -t 0.81456 -s 0 -d 1 -p tcp -e 1000 -c 0 -i 18 -a 0 -x {0.0 3.0 10 ------- null}
h -t 0.81456 -s 0 -d 1 -p tcp -e 1000 -c 0 -i 18 -a 0 -x {0.0 3.0 -1 ------- null}
- -t 0.81856 -s 0 -d 1 -p tcp -e 1000 -c 0 -i 19 -a 0 -x {0.0 3.0 11 ------- null}
h -t 0.81856 -s 0 -d 1 -p tcp -e 1000 -c 0 -i 19 -a 0 -x {0.0 3.0 -1 ------- null}
r -t 0.82056 -s 0 -d 1 -p tcp -e 1000 -c 0 -i 16 -a 0 -x {0.0 3.0 8 ------- null}
+ -t 0.82056 -s 1 -d 2 -p tcp -e 1000 -c 0 -i 16 -a 0 -x {0.0 3.0 8 ------- null}
- -t 0.82056 -s 1 -d 2 -p tcp -e 1000 -c 0 -i 16 -a 0 -x {0.0 3.0 8 ------- null}
h -t 0.82056 -s 1 -d 2 -p tcp -e 1000 -c 0 -i 16 -a 0 -x {0.0 3.0 -1 ------- null}
r -t 0.82256 -s 1 -d 0 -p ack -e 40 -c 0 -i 15 -a 0 -x {3.0 0.0 7 ------- null}
+ -t 0.82256 -s 0 -d 1 -p tcp -e 1000 -c 0 -i 20 -a 0 -x {0.0 3.0 12 ------- null}
+ -t 0.82256 -s 0 -d 1 -p tcp -e 1000 -c 0 -i 21 -a 0 -x {0.0 3.0 13 ------- null}
- -t 0.82256 -s 0 -d 1 -p tcp -e 1000 -c 0 -i 20 -a 0 -x {0.0 3.0 12 ------- null}
h -t 0.82256 -s 0 -d 1 -p tcp -e 1000 -c 0 -i 20 -a 0 -x {0.0 3.0 -1 ------- null}
r -t 0.82456 -s 0 -d 1 -p tcp -e 1000 -c 0 -i 17 -a 0 -x {0.0 3.0 9 ------- null}
+ -t 0.82456 -s 1 -d 2 -p tcp -e 1000 -c 0 -i 17 -a 0 -x {0.0 3.0 9 ------- null}
- -t 0.82656 -s 0 -d 1 -p tcp -e 1000 -c 0 -i 21 -a 0 -x {0.0 3.0 13 ------- null}
h -t 0.82656 -s 0 -d 1 -p tcp -e 1000 -c 0 -i 21 -a 0 -x {0.0 3.0 -1 ------- null}
r -t 0.82856 -s 0 -d 1 -p tcp -e 1000 -c 0 -i 18 -a 0 -x {0.0 3.0 10 ------- null}
+ -t 0.82856 -s 1 -d 2 -p tcp -e 1000 -c 0 -i 18 -a 0 -x {0.0 3.0 10 ------- null}
- -t 0.82856 -s 1 -d 2 -p tcp -e 1000 -c 0 -i 17 -a 0 -x {0.0 3.0 9 ------- null}
h -t 0.82856 -s 1 -d 2 -p tcp -e 1000 -c 0 -i 17 -a 0 -x {0.0 3.0 -1 ------- null}
r -t 0.83256 -s 0 -d 1 -p tcp -e 1000 -c 0 -i 19 -a 0 -x {0.0 3.0 11 ------- null}
+ -t 0.83256 -s 1 -d 2 -p tcp -e 1000 -c 0 -i 19 -a 0 -x {0.0 3.0 11 ------- null}
r -t 0.83656 -s 0 -d 1 -p tcp -e 1000 -c 0 -i 20 -a 0 -x {0.0 3.0 12 ------- null}
+ -t 0.83656 -s 1 -d 2 -p tcp -e 1000 -c 0 -i 20 -a 0 -x {0.0 3.0 12 ------- null}
- -t 0.83656 -s 1 -d 2 -p tcp -e 1000 -c 0 -i 18 -a 0 -x {0.0 3.0 10 ------- null}
h -t 0.83656 -s 1 -d 2 -p tcp -e 1000 -c 0 -i 18 -a 0 -x {0.0 3.0 -1 ------- null}
r -t 0.83856 -s 1 -d 2 -p tcp -e 1000 -c 0 -i 16 -a 0 -x {0.0 3.0 8 ------- null}
+ -t 0.83856 -s 2 -d 3 -p tcp -e 1000 -c 0 -i 16 -a 0 -x {0.0 3.0 8 ------- null}
- -t 0.83856 -s 2 -d 3 -p tcp -e 1000 -c 0 -i 16 -a 0 -x {0.0 3.0 8 ------- null}
h -t 0.83856 -s 2 -d 3 -p tcp -e 1000 -c 0 -i 16 -a 0 -x {0.0 3.0 -1 ------- null}
r -t 0.84056 -s 0 -d 1 -p tcp -e 1000 -c 0 -i 21 -a 0 -x {0.0 3.0 13 ------- null}
+ -t 0.84056 -s 1 -d 2 -p tcp -e 1000 -c 0 -i 21 -a 0 -x {0.0 3.0 13 ------- null}
- -t 0.84456 -s 1 -d 2 -p tcp -e 1000 -c 0 -i 19 -a 0 -x {0.0 3.0 11 ------- null}
h -t 0.84456 -s 1 -d 2 -p tcp -e 1000 -c 0 -i 19 -a 0 -x {0.0 3.0 -1 ------- null}
r -t 0.84656 -s 1 -d 2 -p tcp -e 1000 -c 0 -i 17 -a 0 -x {0.0 3.0 9 ------- null}
+ -t 0.84656 -s 2 -d 3 -p tcp -e 1000 -c 0 -i 17 -a 0 -x {0.0 3.0 9 ------- null}
- -t 0.84656 -s 2 -d 3 -p tcp -e 1000 -c 0 -i 17 -a 0 -x {0.0 3.0 9 ------- null}
h -t 0.84656 -s 2 -d 3 -p tcp -e 1000 -c 0 -i 17 -a 0 -x {0.0 3.0 -1 ------- null}
r -t 0.85256 -s 2 -d 3 -p tcp -e 1000 -c 0 -i 16 -a 0 -x {0.0 3.0 8 ------- null}
+ -t 0.85256 -s 3 -d 2 -p ack -e 40 -c 0 -i 22 -a 0 -x {3.0 0.0 8 ------- null}
- -t 0.85256 -s 3 -d 2 -p ack -e 40 -c 0 -i 22 -a 0 -x {3.0 0.0 8 ------- null}
h -t 0.85256 -s 3 -d 2 -p ack -e 40 -c 0 -i 22 -a 0 -x {3.0 0.0 -1 ------- null}
- -t 0.85256 -s 1 -d 2 -p tcp -e 1000 -c 0 -i 20 -a 0 -x {0.0 3.0 12 ------- null}
h -t 0.85256 -s 1 -d 2 -p tcp -e 1000 -c 0 -i 20 -a 0 -x {0.0 3.0 -1 ------- null}
r -t 0.85456 -s 1 -d 2 -p tcp -e 1000 -c 0 -i 18 -a 0 -x {0.0 3.0 10 ------- null}
+ -t 0.85456 -s 2 -d 3 -p tcp -e 1000 -c 0 -i 18 -a 0 -x {0.0 3.0 10 ------- null}
- -t 0.85456 -s 2 -d 3 -p tcp -e 1000 -c 0 -i 18 -a 0 -x {0.0 3.0 10 ------- null}
h -t 0.85456 -s 2 -d 3 -p tcp -e 1000 -c 0 -i 18 -a 0 -x {0.0 3.0 -1 ------- null}
r -t 0.86056 -s 2 -d 3 -p tcp -e 1000 -c 0 -i 17 -a 0 -x {0.0 3.0 9 ------- null}
+ -t 0.86056 -s 3 -d 2 -p ack -e 40 -c 0 -i 23 -a 0 -x {3.0 0.0 9 ------- null}
- -t 0.86056 -s 3 -d 2 -p ack -e 40 -c 0 -i 23 -a 0 -x {3.0 0.0 9 ------- null}
h -t 0.86056 -s 3 -d 2 -p ack -e 40 -c 0 -i 23 -a 0 -x {3.0 0.0 -1 ------- null}
- -t 0.86056 -s 1 -d 2 -p tcp -e 1000 -c 0 -i 21 -a 0 -x {0.0 3.0 13 ------- null}
h -t 0.86056 -s 1 -d 2 -p tcp -e 1000 -c 0 -i 21 -a 0 -x {0.0 3.0 -1 ------- null}
r -t 0.86256 -s 1 -d 2 -p tcp -e 1000 -c 0 -i 19 -a 0 -x {0.0 3.0 11 ------- null}
+ -t 0.86256 -s 2 -d 3 -p tcp -e 1000 -c 0 -i 19 -a 0 -x {0.0 3.0 11 ------- null}
- -t 0.86256 -s 2 -d 3 -p tcp -e 1000 -c 0 -i 19 -a 0 -x {0.0 3.0 11 ------- null}
h -t 0.86256 -s 2 -d 3 -p tcp -e 1000 -c 0 -i 19 -a 0 -x {0.0 3.0 -1 ------- null}
r -t 0.86272 -s 3 -d 2 -p ack -e 40 -c 0 -i 22 -a 0 -x {3.0 0.0 8 ------- null}
+ -t 0.86272 -s 2 -d 1 -p ack -e 40 -c 0 -i 22 -a 0 -x {3.0 0.0 8 ------- null}
- -t 0.86272 -s 2 -d 1 -p ack -e 40 -c 0 -i 22 -a 0 -x {3.0 0.0 8 ------- null}
h -t 0.86272 -s 2 -d 1 -p ack -e 40 -c 0 -i 22 -a 0 -x {3.0 0.0 -1 ------- null}
r -t 0.86856 -s 2 -d 3 -p tcp -e 1000 -c 0 -i 18 -a 0 -x {0.0 3.0 10 ------- null}
+ -t 0.86856 -s 3 -d 2 -p ack -e 40 -c 0 -i 24 -a 0 -x {3.0 0.0 10 ------- null}
- -t 0.86856 -s 3 -d 2 -p ack -e 40 -c 0 -i 24 -a 0 -x {3.0 0.0 10 ------- null}
h -t 0.86856 -s 3 -d 2 -p ack -e 40 -c 0 -i 24 -a 0 -x {3.0 0.0 -1 ------- null}
r -t 0.87056 -s 1 -d 2 -p tcp -e 1000 -c 0 -i 20 -a 0 -x {0.0 3.0 12 ------- null}
+ -t 0.87056 -s 2 -d 3 -p tcp -e 1000 -c 0 -i 20 -a 0 -x {0.0 3.0 12 ------- null}
- -t 0.87056 -s 2 -d 3 -p tcp -e 1000 -c 0 -i 20 -a 0 -x {0.0 3.0 12 ------- null}
h -t 0.87056 -s 2 -d 3 -p tcp -e 1000 -c 0 -i 20 -a 0 -x {0.0 3.0 -1 ------- null}
r -t 0.87072 -s 3 -d 2 -p ack -e 40 -c 0 -i 23 -a 0 -x {3.0 0.0 9 ------- null}
+ -t 0.87072 -s 2 -d 1 -p ack -e 40 -c 0 -i 23 -a 0 -x {3.0 0.0 9 ------- null}
- -t 0.87072 -s 2 -d 1 -p ack -e 40 -c 0 -i 23 -a 0 -x {3.0 0.0 9 ------- null}
h -t 0.87072 -s 2 -d 1 -p ack -e 40 -c 0 -i 23 -a 0 -x {3.0 0.0 -1 ------- null}
r -t 0.87304 -s 2 -d 1 -p ack -e 40 -c 0 -i 22 -a 0 -x {3.0 0.0 8 ------- null}
+ -t 0.87304 -s 1 -d 0 -p ack -e 40 -c 0 -i 22 -a 0 -x {3.0 0.0 8 ------- null}
- -t 0.87304 -s 1 -d 0 -p ack -e 40 -c 0 -i 22 -a 0 -x {3.0 0.0 8 ------- null}
h -t 0.87304 -s 1 -d 0 -p ack -e 40 -c 0 -i 22 -a 0 -x {3.0 0.0 -1 ------- null}
r -t 0.87656 -s 2 -d 3 -p tcp -e 1000 -c 0 -i 19 -a 0 -x {0.0 3.0 11 ------- null}
+ -t 0.87656 -s 3 -d 2 -p ack -e 40 -c 0 -i 25 -a 0 -x {3.0 0.0 11 ------- null}
- -t 0.87656 -s 3 -d 2 -p ack -e 40 -c 0 -i 25 -a 0 -x {3.0 0.0 11 ------- null}
h -t 0.87656 -s 3 -d 2 -p ack -e 40 -c 0 -i 25 -a 0 -x {3.0 0.0 -1 ------- null}
r -t 0.87856 -s 1 -d 2 -p tcp -e 1000 -c 0 -i 21 -a 0 -x {0.0 3.0 13 ------- null}
+ -t 0.87856 -s 2 -d 3 -p tcp -e 1000 -c 0 -i 21 -a 0 -x {0.0 3.0 13 ------- null}
- -t 0.87856 -s 2 -d 3 -p tcp -e 1000 -c 0 -i 21 -a 0 -x {0.0 3.0 13 ------- null}
h -t 0.87856 -s 2 -d 3 -p tcp -e 1000 -c 0 -i 21 -a 0 -x {0.0 3.0 -1 ------- null}
r -t 0.87872 -s 3 -d 2 -p ack -e 40 -c 0 -i 24 -a 0 -x {3.0 0.0 10 ------- null}
+ -t 0.87872 -s 2 -d 1 -p ack -e 40 -c 0 -i 24 -a 0 -x {3.0 0.0 10 ------- null}
- -t 0.87872 -s 2 -d 1 -p ack -e 40 -c 0 -i 24 -a 0 -x {3.0 0.0 10 ------- null}
h -t 0.87872 -s 2 -d 1 -p ack -e 40 -c 0 -i 24 -a 0 -x {3.0 0.0 -1 ------- null}
r -t 0.88104 -s 2 -d 1 -p ack -e 40 -c 0 -i 23 -a 0 -x {3.0 0.0 9 ------- null}
+ -t 0.88104 -s 1 -d 0 -p ack -e 40 -c 0 -i 23 -a 0 -x {3.0 0.0 9 ------- null}
- -t 0.88104 -s 1 -d 0 -p ack -e 40 -c 0 -i 23 -a 0 -x {3.0 0.0 9 ------- null}
h -t 0.88104 -s 1 -d 0 -p ack -e 40 -c 0 -i 23 -a 0 -x {3.0 0.0 -1 ------- null}
r -t 0.8832 -s 1 -d 0 -p ack -e 40 -c 0 -i 22 -a 0 -x {3.0 0.0 8 ------- null}
+ -t 0.8832 -s 0 -d 1 -p tcp -e 1000 -c 0 -i 26 -a 0 -x {0.0 3.0 14 ------- null}
- -t 0.8832 -s 0 -d 1 -p tcp -e 1000 -c 0 -i 26 -a 0 -x {0.0 3.0 14 ------- null}
h -t 0.8832 -s 0 -d 1 -p tcp -e 1000 -c 0 -i 26 -a 0 -x {0.0 3.0 -1 ------- null}
r -t 0.88456 -s 2 -d 3 -p tcp -e 1000 -c 0 -i 20 -a 0 -x {0.0 3.0 12 ------- null}
+ -t 0.88456 -s 3 -d 2 -p ack -e 40 -c 0 -i 27 -a 0 -x {3.0 0.0 12 ------- null}
- -t 0.88456 -s 3 -d 2 -p ack -e 40 -c 0 -i 27 -a 0 -x {3.0 0.0 12 ------- null}
h -t 0.88456 -s 3 -d 2 -p ack -e 40 -c 0 -i 27 -a 0 -x {3.0 0.0 -1 ------- null}
r -t 0.88672 -s 3 -d 2 -p ack -e 40 -c 0 -i 25 -a 0 -x {3.0 0.0 11 ------- null}
+ -t 0.88672 -s 2 -d 1 -p ack -e 40 -c 0 -i 25 -a 0 -x {3.0 0.0 11 ------- null}
- -t 0.88672 -s 2 -d 1 -p ack -e 40 -c 0 -i 25 -a 0 -x {3.0 0.0 11 ------- null}
h -t 0.88672 -s 2 -d 1 -p ack -e 40 -c 0 -i 25 -a 0 -x {3.0 0.0 -1 ------- null}
r -t 0.88904 -s 2 -d 1 -p ack -e 40 -c 0 -i 24 -a 0 -x {3.0 0.0 10 ------- null}
+ -t 0.88904 -s 1 -d 0 -p ack -e 40 -c 0 -i 24 -a 0 -x {3.0 0.0 10 ------- null}
- -t 0.88904 -s 1 -d 0 -p ack -e 40 -c 0 -i 24 -a 0 -x {3.0 0.0 10 ------- null}
h -t 0.88904 -s 1 -d 0 -p ack -e 40 -c 0 -i 24 -a 0 -x {3.0 0.0 -1 ------- null}
r -t 0.8912 -s 1 -d 0 -p ack -e 40 -c 0 -i 23 -a 0 -x {3.0 0.0 9 ------- null}
+ -t 0.8912 -s 0 -d 1 -p tcp -e 1000 -c 0 -i 28 -a 0 -x {0.0 3.0 15 ------- null}
- -t 0.8912 -s 0 -d 1 -p tcp -e 1000 -c 0 -i 28 -a 0 -x {0.0 3.0 15 ------- null}
h -t 0.8912 -s 0 -d 1 -p tcp -e 1000 -c 0 -i 28 -a 0 -x {0.0 3.0 -1 ------- null}
r -t 0.89256 -s 2 -d 3 -p tcp -e 1000 -c 0 -i 21 -a 0 -x {0.0 3.0 13 ------- null}
+ -t 0.89256 -s 3 -d 2 -p ack -e 40 -c 0 -i 29 -a 0 -x {3.0 0.0 13 ------- null}
- -t 0.89256 -s 3 -d 2 -p ack -e 40 -c 0 -i 29 -a 0 -x {3.0 0.0 13 ------- null}
h -t 0.89256 -s 3 -d 2 -p ack -e 40 -c 0 -i 29 -a 0 -x {3.0 0.0 -1 ------- null}
r -t 0.89472 -s 3 -d 2 -p ack -e 40 -c 0 -i 27 -a 0 -x {3.0 0.0 12 ------- null}
+ -t 0.89472 -s 2 -d 1 -p ack -e 40 -c 0 -i 27 -a 0 -x {3.0 0.0 12 ------- null}
- -t 0.89472 -s 2 -d 1 -p ack -e 40 -c 0 -i 27 -a 0 -x {3.0 0.0 12 ------- null}
h -t 0.89472 -s 2 -d 1 -p ack -e 40 -c 0 -i 27 -a 0 -x {3.0 0.0 -1 ------- null}
r -t 0.89704 -s 2 -d 1 -p ack -e 40 -c 0 -i 25 -a 0 -x {3.0 0.0 11 ------- null}
+ -t 0.89704 -s 1 -d 0 -p ack -e 40 -c 0 -i 25 -a 0 -x {3.0 0.0 11 ------- null}
- -t 0.89704 -s 1 -d 0 -p ack -e 40 -c 0 -i 25 -a 0 -x {3.0 0.0 11 ------- null}
h -t 0.89704 -s 1 -d 0 -p ack -e 40 -c 0 -i 25 -a 0 -x {3.0 0.0 -1 ------- null}
r -t 0.8972 -s 0 -d 1 -p tcp -e 1000 -c 0 -i 26 -a 0 -x {0.0 3.0 14 ------- null}
+ -t 0.8972 -s 1 -d 2 -p tcp -e 1000 -c 0 -i 26 -a 0 -x {0.0 3.0 14 ------- null}
- -t 0.8972 -s 1 -d 2 -p tcp -e 1000 -c 0 -i 26 -a 0 -x {0.0 3.0 14 ------- null}
h -t 0.8972 -s 1 -d 2 -p tcp -e 1000 -c 0 -i 26 -a 0 -x {0.0 3.0 -1 ------- null}
r -t 0.8992 -s 1 -d 0 -p ack -e 40 -c 0 -i 24 -a 0 -x {3.0 0.0 10 ------- null}
+ -t 0.8992 -s 0 -d 1 -p tcp -e 1000 -c 0 -i 30 -a 0 -x {0.0 3.0 16 ------- null}
- -t 0.8992 -s 0 -d 1 -p tcp -e 1000 -c 0 -i 30 -a 0 -x {0.0 3.0 16 ------- null}
h -t 0.8992 -s 0 -d 1 -p tcp -e 1000 -c 0 -i 30 -a 0 -x {0.0 3.0 -1 ------- null}
r -t 0.90272 -s 3 -d 2 -p ack -e 40 -c 0 -i 29 -a 0 -x {3.0 0.0 13 ------- null}
+ -t 0.90272 -s 2 -d 1 -p ack -e 40 -c 0 -i 29 -a 0 -x {3.0 0.0 13 ------- null}
- -t 0.90272 -s 2 -d 1 -p ack -e 40 -c 0 -i 29 -a 0 -x {3.0 0.0 13 ------- null}
h -t 0.90272 -s 2 -d 1 -p ack -e 40 -c 0 -i 29 -a 0 -x {3.0 0.0 -1 ------- null}
r -t 0.90504 -s 2 -d 1 -p ack -e 40 -c 0 -i 27 -a 0 -x {3.0 0.0 12 ------- null}
+ -t 0.90504 -s 1 -d 0 -p ack -e 40 -c 0 -i 27 -a 0 -x {3.0 0.0 12 ------- null}
- -t 0.90504 -s 1 -d 0 -p ack -e 40 -c 0 -i 27 -a 0 -x {3.0 0.0 12 ------- null}
h -t 0.90504 -s 1 -d 0 -p ack -e 40 -c 0 -i 27 -a 0 -x {3.0 0.0 -1 ------- null}
r -t 0.9052 -s 0 -d 1 -p tcp -e 1000 -c 0 -i 28 -a 0 -x {0.0 3.0 15 ------- null}
+ -t 0.9052 -s 1 -d 2 -p tcp -e 1000 -c 0 -i 28 -a 0 -x {0.0 3.0 15 ------- null}
- -t 0.9052 -s 1 -d 2 -p tcp -e 1000 -c 0 -i 28 -a 0 -x {0.0 3.0 15 ------- null}
h -t 0.9052 -s 1 -d 2 -p tcp -e 1000 -c 0 -i 28 -a 0 -x {0.0 3.0 -1 ------- null}
r -t 0.9072 -s 1 -d 0 -p ack -e 40 -c 0 -i 25 -a 0 -x {3.0 0.0 11 ------- null}
+ -t 0.9072 -s 0 -d 1 -p tcp -e 1000 -c 0 -i 31 -a 0 -x {0.0 3.0 17 ------- null}
- -t 0.9072 -s 0 -d 1 -p tcp -e 1000 -c 0 -i 31 -a 0 -x {0.0 3.0 17 ------- null}
h -t 0.9072 -s 0 -d 1 -p tcp -e 1000 -c 0 -i 31 -a 0 -x {0.0 3.0 -1 ------- null}
r -t 0.91304 -s 2 -d 1 -p ack -e 40 -c 0 -i 29 -a 0 -x {3.0 0.0 13 ------- null}
+ -t 0.91304 -s 1 -d 0 -p ack -e 40 -c 0 -i 29 -a 0 -x {3.0 0.0 13 ------- null}
- -t 0.91304 -s 1 -d 0 -p ack -e 40 -c 0 -i 29 -a 0 -x {3.0 0.0 13 ------- null}
h -t 0.91304 -s 1 -d 0 -p ack -e 40 -c 0 -i 29 -a 0 -x {3.0 0.0 -1 ------- null}
r -t 0.9132 -s 0 -d 1 -p tcp -e 1000 -c 0 -i 30 -a 0 -x {0.0 3.0 16 ------- null}
+ -t 0.9132 -s 1 -d 2 -p tcp -e 1000 -c 0 -i 30 -a 0 -x {0.0 3.0 16 ------- null}
- -t 0.9132 -s 1 -d 2 -p tcp -e 1000 -c 0 -i 30 -a 0 -x {0.0 3.0 16 ------- null}
h -t 0.9132 -s 1 -d 2 -p tcp -e 1000 -c 0 -i 30 -a 0 -x {0.0 3.0 -1 ------- null}
r -t 0.9152 -s 1 -d 2 -p tcp -e 1000 -c 0 -i 26 -a 0 -x {0.0 3.0 14 ------- null}
+ -t 0.9152 -s 2 -d 3 -p tcp -e 1000 -c 0 -i 26 -a 0 -x {0.0 3.0 14 ------- null}
- -t 0.9152 -s 2 -d 3 -p tcp -e 1000 -c 0 -i 26 -a 0 -x {0.0 3.0 14 ------- null}
h -t 0.9152 -s 2 -d 3 -p tcp -e 1000 -c 0 -i 26 -a 0 -x {0.0 3.0 -1 ------- null}
r -t 0.9152 -s 1 -d 0 -p ack -e 40 -c 0 -i 27 -a 0 -x {3.0 0.0 12 ------- null}
+ -t 0.9152 -s 0 -d 1 -p tcp -e 1000 -c 0 -i 32 -a 0 -x {0.0 3.0 18 ------- null}